
 Primary working directories    : /tmp
 Secondary working directories  : /tmp
 Wavefunction directory         : /home/alongd/wfu/
 Main file repository           : /tmp/

 SHA1      : bcc541aafb6436e7cbfd6a9eace0379a6d456b47
 NAME      : 2015.1.11
 ARCHNAME  : linux/x86_64
 FC        : /opt/intel/composer_xe_2015.1.133/bin/intel64/ifort
 BLASLIB   : -Wl,-_start-group /opt/intel/mkl/lib/intel64/libmkl_intel_ilp64.a /opt/intel/mkl/lib/intel64/libmkl_intel_thread.a /opt/intel/mkl/lib/intel64/libmkl_core.a -Wl,-_end-group
 id        : phalgunlolur

 Nodes     nprocs
 node05       1

 Using customized tuning parameters: mindgm=1; mindgv=20; mindgc=4; mindgr=1; noblas=0; minvec=7
 default implementation of scratch files=df  

 ***,xq1228
 memory,2000,m;
 geometry={angstrom;
  S         -3.5899629418        2.1885846542       -0.5001695660
  H         -3.6893222621        2.9187113699        0.6438875923
  O         -2.0296032733        1.4592319583       -0.2110215598
  O         -3.2280665228        0.6344710176        0.2097415335
 }
 basis=cc-pvtz-f12
 int;
 {hf;wf,spin=1,charge=0;}
 uccsd(t)-F12a;

 Variables initialized (889), CPU time= 0.01 sec
 Commands  initialized (702), CPU time= 0.01 sec, 572 directives.
 Default parameters read. Elapsed time= 0.11 sec

 Checking input...
 Passed
1


                                         ***  PROGRAM SYSTEM MOLPRO  ***
                                       Copyright, TTI GmbH Stuttgart, 2015
                                    Version 2015.1 linked Sep  5 2016 17:26:57


 **********************************************************************************************************************************
 LABEL *   xq1228                                                                        
  64 bit serial version                                                                  DATE: 06-May-18          TIME: 18:02:39  
 **********************************************************************************************************************************

 SHA1:             bcc541aafb6436e7cbfd6a9eace0379a6d456b47
 **********************************************************************************************************************************

Geometry recognized as XYZ


 Variable memory set to 2000000000 words,  buffer space   230000 words

 SETTING BASIS          =    CC-PVTZ-F12


 Using spherical harmonics

 Library entry S      S cc-pVTZ-F12          selected for orbital group  1
 Library entry S      P cc-pVTZ-F12          selected for orbital group  1
 Library entry S      D cc-pVTZ-F12          selected for orbital group  1
 Library entry S      F cc-pVTZ-F12          selected for orbital group  1
 Library entry H      S cc-pVTZ-F12          selected for orbital group  2
 Library entry H      P cc-pVTZ-F12          selected for orbital group  2
 Library entry H      D cc-pVTZ-F12          selected for orbital group  2
 Library entry O      S cc-pVTZ-F12          selected for orbital group  3
 Library entry O      P cc-pVTZ-F12          selected for orbital group  3
 Library entry O      D cc-pVTZ-F12          selected for orbital group  3
 Library entry O      F cc-pVTZ-F12          selected for orbital group  3


 PROGRAM * SEWARD (Integral evaluation for generally contracted gaussian basis sets)     Author: Roland Lindh, 1990

 Geometry written to block  1 of record 700


 Point group  C1  



 ATOMIC COORDINATES

 NR  ATOM    CHARGE       X              Y              Z

   1  S      16.00   -6.784046757    4.135825597   -0.945183496
   2  H       1.00   -6.971808661    5.515565126    1.216771204
   3  O       8.00   -3.835394328    2.757548753   -0.398772954
   4  O       8.00   -6.100161640    1.198976457    0.396354055

 Bond lengths in Bohr (Angstrom)

 1-2  2.571572248  1-3  3.300418562  1-4  3.300379482  3-4  2.861912916
     ( 1.360817430)     ( 1.746506290)     ( 1.746485609)     ( 1.514459095)

 Bond angles

  1-3-4   64.30491208   1-4-3   64.30632214   2-1-3   98.63309288   2-1-4   98.67524797

  3-1-4   51.38876578

 NUCLEAR CHARGE:                   33
 NUMBER OF PRIMITIVE AOS:         265
 NUMBER OF SYMMETRY AOS:          236
 NUMBER OF CONTRACTIONS:          186   ( 186A   )
 NUMBER OF CORE ORBITALS:           7   (   7A   )
 NUMBER OF VALENCE ORBITALS:       13   (  13A   )


 NUCLEAR REPULSION ENERGY  109.72329385


 Eigenvalues of metric

         1 0.118E-03 0.135E-03 0.151E-03 0.188E-03 0.485E-03 0.486E-03 0.511E-03 0.638E-03


 Contracted 2-electron integrals neglected if value below      1.0D-11
 AO integral compression algorithm  1   Integral accuracy      1.0D-11

     752.353 MB (compressed) written to integral file ( 50.0%)


 NUMBER OF SORTED TWO-ELECTRON INTEGRALS:  151232136.     BUFFER LENGTH:  32768
 NUMBER OF SEGMENTS:  10  SEGMENT LENGTH:   15999503      RECORD LENGTH: 524288

 Memory used in sort:      16.56 MW

 SORT1 READ   188131698. AND WROTE   145606793. INTEGRALS IN    422 RECORDS. CPU TIME:     2.38 SEC, REAL TIME:     3.63 SEC
 SORT2 READ   145606793. AND WROTE   151232136. INTEGRALS IN   2870 RECORDS. CPU TIME:     2.31 SEC, REAL TIME:     3.00 SEC

 FILE SIZES:   FILE 1:   772.8 MBYTE,  FILE 4:  1770.0 MBYTE,   TOTAL:   2542.8 MBYTE

 OPERATOR DM      FOR CENTER  0  COORDINATES:    0.000000    0.000000    0.000000


 **********************************************************************************************************************************
 DATASETS  * FILE   NREC   LENGTH (MB)   RECORD NAMES
              1      19      635.02       500      610      700      900      950      970     1000      129      960     1100   
                                          VAR    BASINP    GEOM    SYMINP    ZMAT    AOBASIS   BASIS     P2S    ABASIS      S 
                                         1400     1410     1200     1210     1080     1600     1650     1300     1700   
                                           T        V       H0       H01     AOSYM     SMH    MOLCAS    ERIS     OPER   

 PROGRAMS   *        TOTAL       INT
 CPU TIMES  *        15.40     15.23
 REAL TIME  *        19.47 SEC
 DISK USED  *         2.54 GB      
 **********************************************************************************************************************************


 PROGRAM * RHF-SCF (OPEN SHELL)       Authors: W. Meyer, H.-J. Werner


 NUMBER OF ELECTRONS:      17+   16-    SPACE SYMMETRY=1    SPIN SYMMETRY: Doublet 
 CONVERGENCE THRESHOLDS:    1.00E-05 (Density)    1.00E-07 (Energy)
 MAX. NUMBER OF ITERATIONS:       60
 INTERPOLATION TYPE:            DIIS
 INTERPOLATION STEPS:              2 (START)      1 (STEP)
 LEVEL SHIFTS:                 -0.60 (CLOSED) -0.30 (OPEN) 



 Orbital guess generated from atomic densities. Full valence occupancy:   20

 Molecular orbital dump at record        2100.2

 Initial alpha occupancy:  17
 Initial beta  occupancy:  16
 Wave function symmetry:    1

 ITERATION    DDIFF          GRAD             ENERGY        2-EL.EN.            DIPOLE MOMENTS         DIIS   ORB.
    1      0.000D+00      0.000D+00      -547.61702746    629.979253   -1.06085    1.55131    0.01812    0    start
    2      0.000D+00      0.463D-02      -547.67121622    633.842832   -0.75612    1.12971    0.05951    1    diag,B
    3      0.396D-02      0.118D-02      -547.67595200    634.006692   -0.74066    1.08993    0.02577    2    diag,B
    4      0.139D-02      0.500D-03      -547.67771017    634.107207   -0.72378    1.05848    0.01218    3    diag,B
    5      0.556D-03      0.202D-03      -547.67818871    634.141935   -0.72890    1.06094    0.00250    4    diag,B
    6      0.278D-03      0.866D-04      -547.67831407    634.138951   -0.73599    1.06937   -0.00122    5    diag,B
    7      0.144D-03      0.403D-04      -547.67835704    634.142200   -0.74246    1.07739   -0.00393    6    fixocc
    8      0.873D-04      0.230D-04      -547.67837383    634.141519   -0.74654    1.08242   -0.00572    7    diag,B
    9      0.596D-04      0.116D-04      -547.67837873    634.142160   -0.74887    1.08520   -0.00686    8    diag,B
   10      0.388D-04      0.505D-05      -547.67837944    634.141874   -0.74960    1.08610   -0.00721    9    orth
   11      0.176D-04      0.221D-05      -547.67837953    634.141954   -0.74975    1.08628   -0.00727    9    diag,B
   12      0.664D-05      0.108D-05      -547.67837954    634.141927   -0.74976    1.08631   -0.00727    0    orth

 Final alpha occupancy:  17
 Final beta  occupancy:  16

 !RHF STATE 1.1 Energy               -547.678379541676
 Nuclear energy                       109.72329385
 One-electron energy                 -974.47263698
 Two-electron energy                  317.07096359
 Virial quotient                       -1.00078269
 !RHF STATE 1.1 Dipole moment          -0.74976239     1.08631008    -0.00727242
 Dipole moment /Debye                  -1.90558110     2.76094397    -0.01848343

 Orbital energies:

         1.1          2.1          3.1          4.1          5.1          6.1          7.1          8.1          9.1         10.1
    -92.119539   -20.643968   -20.643743    -9.105246    -6.786229    -6.785233    -6.784834    -1.485421    -1.167227    -0.993265

        11.1         12.1         13.1         14.1         15.1         16.1         17.1         18.1         19.1
     -0.705292    -0.647428    -0.574932    -0.554631    -0.520754    -0.476350    -0.342515     0.039068     0.060986

 HOMO     17.1    -0.342515 =      -9.3203eV
 LUMO     18.1     0.039068 =       1.0631eV
 LUMO-HOMO         0.381583 =      10.3834eV


 **********************************************************************************************************************************
 DATASETS  * FILE   NREC   LENGTH (MB)   RECORD NAMES
              1      19      635.02       500      610      700      900      950      970     1000      129      960     1100   
                                          VAR    BASINP    GEOM    SYMINP    ZMAT    AOBASIS   BASIS     P2S    ABASIS      S 
                                         1400     1410     1200     1210     1080     1600     1650     1300     1700   
                                           T        V       H0       H01     AOSYM     SMH    MOLCAS    ERIS     OPER   

              2       4        3.80       700     1000      520     2100   
                                         GEOM     BASIS   MCVARS     RHF  

 PROGRAMS   *        TOTAL        HF       INT
 CPU TIMES  *        38.59     23.19     15.23
 REAL TIME  *        44.43 SEC
 DISK USED  *         2.54 GB      
 **********************************************************************************************************************************


 PROGRAM * CCSD (Unrestricted open-shell coupled cluster)     Authors: C. Hampel, H.-J. Werner, 1991, M. Deegan, P.J. Knowles, 1992

                           UCCSD-F12 implementation by G. Knizia and H.-J. Werner, 2008

                   Density fitting integral evaluation by F.R. Manby, 2003,2007, G. Knizia, 2010

 Basis set AUG-CC-PVTZ/JKFIT generated.  Number of basis functions:   400 
 Basis set CC-PVTZ-F12/OPTRI generated.  Number of basis functions:   266 
 Basis set AUG-CC-PVTZ/MP2FIT generated. Number of basis functions:   405 

 Convergence thresholds:  THRVAR = 1.00D-08  THRDEN = 1.00D-06

 CCSD(T)     terms to be evaluated (factor= 1.000)


 Number of core orbitals:           7 (   7 )
 Number of closed-shell orbitals:   9 (   9 )
 Number of active  orbitals:        1 (   1 )
 Number of external orbitals:     169 ( 169 )

 Memory could be reduced to 94.31 Mwords without degradation in triples

 Number of N-1 electron functions:              19
 Number of N-2 electron functions:             171
 Number of singly external CSFs:              3230
 Number of doubly external CSFs:           3764565
 Total number of CSFs:                     3767795

 Molecular orbitals read from record     2100.2  Type=RHF/CANONICAL (state 1.1)

 Integral transformation finished. Total CPU:   7.70 sec, npass=  1  Memory used:  39.52 MW
 
 Geminal basis:    OPTFULL  GEM_TYPE=SLATER  BETA=1.0  NGEM=6

 Optimizing Gaussian exponents for each gem_beta

 Geminal optimization for beta= 1.0000
 Weight function:   m=0, omega= 1.4646

 Augmented Hessian optimization of geminal fit. Trust ratio= 0.40000
 Convergence reached after   2 iterations. Final gradient= 8.41D-16, Step= 4.29D-06, Delta= 1.28D-09
 
 Alpha:                 0.19532     0.81920     2.85917     9.50073    35.69989   197.79328
 Coeff:                 0.27070     0.30552     0.18297     0.10986     0.06810     0.04224
 
 
 WFN_F12=FIX,EG    DECOUPLE_EXPL=F   HYBRID=0    NOX=F   SEMIINT_F12=T   CORE_SINGLES=F
 
 AO(A)-basis ORBITAL           loaded. Number of functions:     186
 RI(R)-basis CC-PVTZ-F12/OPTRI loaded. Number of functions:     266
 DF-basis AUG-CC-PVTZ/JKFIT    loaded. Number of functions:     400

 Screening thresholds:   THRAO=  1.00D-10  THRMO=  1.00D-09  THRPROD=  1.00D-09
                         THRSW=  1.00D-05  THROV=  1.00D-12  THRAOF12=   1.00D-08

 CPU time for one-electron matrices               3.15 sec
 
 Construction of ABS:
 Pseudo-inverse stability          4.90E-13
 Smallest eigenvalue of S          1.91E-03  (threshold= 1.00E-08)
 Ratio eigmin/eigmax               3.16E-04  (threshold= 1.00E-09)
 Smallest eigenvalue of S kept     1.91E-03  (threshold= 1.91E-03, 0 functions deleted, 266 kept)
 
 Construction of CABS:
 Pseudo-inverse stability          6.67E-11
 Smallest eigenvalue of S          1.20E-06  (threshold= 1.00E-08)
 Ratio eigmin/eigmax               1.20E-06  (threshold= 1.00E-09)
 Smallest eigenvalue of S kept     1.20E-06  (threshold= 1.20E-06, 0 functions deleted, 266 kept)
 
 CPU time for basis constructions                 0.04 sec
 Fock operators(MO) rebuilt from dump record.
 CPU time for fock operators                      0.10 sec
 
                                      TOTAL          ALPHA          BETA    
  Singles Contributions MO        -0.004440286   -0.002212203   -0.002228083
  Singles Contributions CABS      -0.002077004   -0.001100738   -0.000976266
  Pure DF-RHF relaxation          -0.002055047
 
 CPU time for singles                             0.24 sec
 
 AO(A)-basis ORBITAL           loaded. Number of functions:     186
 RI(R)-basis CC-PVTZ-F12/OPTRI loaded. Number of functions:     266
 DF-basis AUG-CC-PVTZ/MP2FIT   loaded. Number of functions:     405

 Screening thresholds:   THRAO=  1.00D-10  THRMO=  1.00D-09  THRPROD=  1.00D-09
                         THRSW=  1.00D-05  THROV=  1.00D-12  THRAOF12=   1.00D-08

 CPU time for transformed integrals              12.55 sec
 CPU time for F12 matrices                        0.90 sec

 Diagonal F12 ansatz with fixed amplitudes:   TS= 0.5000  TT= 0.2500  TN= 0.3750
 
 ITER.     SQ.NORM      CORR.ENERGY   TOTAL ENERGY  ENERGY CHANGE      VAR         CPU   MICRO    DIIS
   1      1.22794247    -0.78600071  -548.46643530    -7.8806E-01   2.25E-01      0.06  1  1  1   0  0
   2      1.22579233    -0.78360219  -548.46403678     2.3985E-03   8.62E-05      0.32  0  0  0   1  1
   3      1.22598693    -0.78377687  -548.46421146    -1.7468E-04   1.81E-07      0.58  0  0  0   2  2
   4      1.22598714    -0.78377716  -548.46421175    -2.8806E-07   3.77E-10      0.86  0  0  0   3  3
 
 - - Continuing with F12/conv. amplitude coupling turned on.
 
   5      1.22589574    -0.78388250  -548.46431709    -1.0563E-04   8.89E-05      1.19  1  1  1   1  1
   6      1.22589566    -0.78388209  -548.46431668     4.0397E-07   1.35E-09      1.46  1  1  1   2  2
 
 CPU time for iterative RMP2-F12                  1.46 sec
 
 
 DF-RMP2-F12 doubles corrections:
 - - - - - - - - - - - - - - - - 
  Approx.                             TOTAL           A-B            A-A            B-B    
  RMP2-F12/3C(FIX)                -0.066796301   -0.061260691   -0.003089187   -0.002446424
  RMP2-F12/3*C(FIX)               -0.066691366   -0.061374439   -0.002973438   -0.002343489
  RMP2-F12/3*C(DX)                -0.066924925   -0.061588169   -0.002985648   -0.002351109
  RMP2-F12/3*C(FIX,DX)            -0.070016399   -0.064540908   -0.003042763   -0.002432728
 
 DF-RMP2-F12 doubles energies:
 - - - - - - - - - - - - - - -
  Approx.                             TOTAL           A-B            A-A            B-B    
  RMP2                            -0.712645506   -0.529573912   -0.095285041   -0.087786553
  RMP2-F12/3C(FIX)                -0.779441807   -0.590834603   -0.098374228   -0.090232977
  RMP2-F12/3*C(FIX)               -0.779336872   -0.590948351   -0.098258479   -0.090130042
  RMP2-F12/3*C(DX)                -0.779570431   -0.591162081   -0.098270689   -0.090137662
  RMP2-F12/3*C(FIX,DX)            -0.782661905   -0.594114821   -0.098327804   -0.090219281
 
 
  Reference energy                   -547.678379541674
  CABS relaxation correction to RHF    -0.002055046867
  New reference energy               -547.680434588541
 
  RMP2-F12 singles (MO) energy         -0.004440285517
  RMP2-F12 pair energy                 -0.779441807317
  RMP2-F12 correlation energy          -0.783882092834
 
  RMP2-F12/3C(FIX) energy            -548.464316681375

 Starting RMP2 calculation

 ITER.      SQ.NORM     CORR.ENERGY   TOTAL ENERGY   ENERGY CHANGE        DEN1      VAR(S)    VAR(P)  DIIS     TIME
   1      1.22324238    -0.71445704  -548.39283658    -0.71445704    -0.00241269  0.27D-04  0.11D-02  1  1    28.41
   2      1.22589036    -0.71705996  -548.39543951    -0.00260292    -0.00000459  0.17D-06  0.24D-05  2  2    28.72
   3      1.22597921    -0.71710962  -548.39548916    -0.00004965    -0.00000002  0.32D-08  0.75D-08  3  3    29.06
   4      1.22598003    -0.71710948  -548.39548902     0.00000013    -0.00000000  0.79D-10  0.31D-10  4  4    29.40

 Norm of t1 vector:      0.05840891      S-energy:    -0.00444027      T1 diagnostic:  0.00027544
 Norm of t2 vector:      0.47177159      P-energy:    -0.71266921
                                         Alpha-Beta:  -0.52980995
                                         Alpha-Alpha: -0.09516480
                                         Beta-Beta:   -0.08769447

 Spin contamination <S**2-Sz**2-Sz>     0.00183411
  Reference energy                   -547.680434588540
  RHF-RMP2 correlation energy          -0.717109482485
 !RHF-RMP2 energy                    -548.397544071025

 Starting UCCSD calculation

 ITER.      SQ.NORM     CORR.ENERGY   TOTAL ENERGY   ENERGY CHANGE        DEN1      VAR(S)    VAR(P)  DIIS     TIME
   1      1.20246830    -0.67576026  -548.35413980    -0.67576026    -0.02771113  0.61D-02  0.51D-02  1  1    53.87
   2      1.22428998    -0.69824025  -548.37661979    -0.02247999    -0.00273769  0.30D-03  0.98D-03  2  2    79.68
   3      1.23318173    -0.70113935  -548.37951889    -0.00289910    -0.00039745  0.21D-03  0.84D-04  3  3   104.87
   4      1.23972017    -0.70365174  -548.38203128    -0.00251239    -0.00007238  0.39D-04  0.17D-04  4  4   130.39
   5      1.24211349    -0.70396606  -548.38234560    -0.00031432    -0.00002290  0.21D-04  0.32D-05  5  5   155.26
   6      1.24362607    -0.70411183  -548.38249137    -0.00014577    -0.00000915  0.80D-05  0.13D-05  6  6   179.98
   7      1.24475694    -0.70417364  -548.38255318    -0.00006181    -0.00000346  0.29D-05  0.53D-06  6  1   204.34
   8      1.24562568    -0.70422415  -548.38260370    -0.00005052    -0.00000117  0.94D-06  0.19D-06  6  2   229.36
   9      1.24596687    -0.70424034  -548.38261988    -0.00001618    -0.00000041  0.31D-06  0.71D-07  6  3   255.64
  10      1.24610570    -0.70424001  -548.38261955     0.00000033    -0.00000012  0.10D-06  0.18D-07  6  4   280.70
  11      1.24617149    -0.70424116  -548.38262070    -0.00000115    -0.00000003  0.18D-07  0.62D-08  6  5   306.12
  12      1.24616507    -0.70423601  -548.38261555     0.00000515    -0.00000001  0.33D-08  0.18D-08  6  6   330.45
  13      1.24616913    -0.70423607  -548.38261561    -0.00000006    -0.00000000  0.99D-09  0.38D-09  6  1   354.80

 Norm of t1 vector:      0.14727198      S-energy:    -0.00470735      T1 diagnostic:  0.02162647
                                                                       D1 diagnostic:  0.04634230
 Norm of t2 vector:      0.47379330      P-energy:    -0.69952872
                                         Alpha-Beta:  -0.54360627
                                         Alpha-Alpha: -0.08188341
                                         Beta-Beta:   -0.07403904

 Singles amplitudes (print threshold =  0.500E-01):

         I         SYM. A    A   T(IA) [Beta-Beta]

         7         1         1      0.06516810

 Spin contamination <S**2-Sz**2-Sz>     0.00328112

 Memory could be reduced to 100.71 Mwords without degradation in triples
 

 RESULTS
 =======

  Reference energy                   -547.678379541673
  CABS relaxation correction to RHF    -0.002055046867
  New reference energy               -547.680434588540
 
  F12 corrections for ansatz 3C(FIX) added to UCCSD energy. Coupling mode:  7
 
  UCCSD-F12a singles energy            -0.004707351634
  UCCSD-F12a pair energy               -0.765173329887
  UCCSD-F12a correlation energy        -0.769880681520
  Triples (T) contribution             -0.038702579895
  Total correlation energy             -0.808583261415
 
  RHF-UCCSD-F12a energy              -548.450315270060
  RHF-UCCSD[T]-F12a energy           -548.491161875665
  RHF-UCCSD-T-F12a energy            -548.488203114198
 !RHF-UCCSD(T)-F12a energy           -548.489017849955

 Program statistics:

 Available memory in ccsd:              1999999000
 Min. memory needed in ccsd:              11132944
 Max. memory used in ccsd:                15732284
 Max. memory used in cckext:              12633755 (13 integral passes)
 Max. memory used in cckint:              39518787 ( 1 integral passes)



 **********************************************************************************************************************************
 DATASETS  * FILE   NREC   LENGTH (MB)   RECORD NAMES
              1      19      635.02       500      610      700      900      950      970     1000      129      960     1100   
                                          VAR    BASINP    GEOM    SYMINP    ZMAT    AOBASIS   BASIS     P2S    ABASIS      S 
                                         1400     1410     1200     1210     1080     1600     1650     1300     1700   
                                           T        V       H0       H01     AOSYM     SMH    MOLCAS    ERIS     OPER   

              2       5        4.22       700     1000      520     2100     7360   
                                         GEOM     BASIS   MCVARS     RHF    F12ABS    

 PROGRAMS   *        TOTAL      F12A        HF       INT
 CPU TIMES  *       761.80    723.21     23.19     15.23
 REAL TIME  *       787.04 SEC
 DISK USED  *         4.16 GB      
 **********************************************************************************************************************************

 UCCSD(T)-F12A/cc-pVTZ-F12 energy=   -548.489017849955

   UCCSD(T)-F12A        HF-SCF  
   -548.48901785   -547.67837954
 **********************************************************************************************************************************
 Variable memory released
